# vtk DataFile Version 2.0
rectangular1, Created by Gmsh
ASCII
DATASET UNSTRUCTURED_GRID
POINTS 92 double
63 54 0
63 44 0
87 44 0
87 54 0
69 54 0
75 54 0
81 54 0
69 44 0
75 44 0
81 44 0
63 49 0
87 49 0
63.7500000000739 54 0
64.50000000008951 54 0
65.25000000007459 54 0
66.00000000005969 54 0
66.75000000004476 54 0
67.50000000002984 54 0
68.25000000001492 54 0
69.75 54 0
70.5 54 0
71.25 54 0
72 54 0
72.75 54 0
73.5 54 0
74.25 54 0
75.75 54 0
76.5 54 0
77.25 54 0
78 54 0
78.75 54 0
79.5 54 0
80.25 54 0
81.75 54 0
82.5 54 0
83.25 54 0
84 54 0
84.75 54 0
85.5 54 0
86.25 54 0
63.7500000000739 44 0
64.50000000008951 44 0
65.25000000007459 44 0
66.00000000005969 44 0
66.75000000004476 44 0
67.50000000002984 44 0
68.25000000001492 44 0
69.75 44 0
70.5 44 0
71.25 44 0
72 44 0
72.75 44 0
73.5 44 0
74.25 44 0
75.75 44 0
76.5 44 0
77.25 44 0
78 44 0
78.75 44 0
79.5 44 0
80.25 44 0
81.75 44 0
82.5 44 0
83.25 44 0
84 44 0
84.75 44 0
85.5 44 0
86.25 44 0
63 44.71428571428572 0
63 45.42857142857143 0
63 46.14285714285715 0
63 46.85714285714285 0
63 47.57142857142857 0
63 48.28571428571428 0
63 49.71428571428572 0
63 50.42857142857143 0
63 51.14285714285715 0
63 51.85714285714285 0
63 52.57142857142857 0
63 53.28571428571428 0
87 44.71428571428572 0
87 45.42857142857143 0
87 46.14285714285715 0
87 46.85714285714285 0
87 47.57142857142857 0
87 48.28571428571428 0
87 49.71428571428572 0
87 50.42857142857143 0
87 51.14285714285715 0
87 51.85714285714285 0
87 52.57142857142857 0
87 53.28571428571428 0

CELLS 104 300
1 0
1 1
1 2
1 3
1 4
1 5
1 6
1 7
1 8
1 9
1 10
1 11
2 0 12
2 12 13
2 13 14
2 14 15
2 15 16
2 16 17
2 17 18
2 18 4
2 4 19
2 19 20
2 20 21
2 21 22
2 22 23
2 23 24
2 24 25
2 25 5
2 5 26
2 26 27
2 27 28
2 28 29
2 29 30
2 30 31
2 31 32
2 32 6
2 6 33
2 33 34
2 34 35
2 35 36
2 36 37
2 37 38
2 38 39
2 39 3
2 1 40
2 40 41
2 41 42
2 42 43
2 43 44
2 44 45
2 45 46
2 46 7
2 7 47
2 47 48
2 48 49
2 49 50
2 50 51
2 51 52
2 52 53
2 53 8
2 8 54
2 54 55
2 55 56
2 56 57
2 57 58
2 58 59
2 59 60
2 60 9
2 9 61
2 61 62
2 62 63
2 63 64
2 64 65
2 65 66
2 66 67
2 67 2
2 1 68
2 68 69
2 69 70
2 70 71
2 71 72
2 72 73
2 73 10
2 10 74
2 74 75
2 75 76
2 76 77
2 77 78
2 78 79
2 79 0
2 2 80
2 80 81
2 81 82
2 82 83
2 83 84
2 84 85
2 85 11
2 11 86
2 86 87
2 87 88
2 88 89
2 89 90
2 90 91
2 91 3

CELL_TYPES 104
1
1
1
1
1
1
1
1
1
1
1
1
3
3
3
3
3
3
3
3
3
3
3
3
3
3
3
3
3
3
3
3
3
3
3
3
3
3
3
3
3
3
3
3
3
3
3
3
3
3
3
3
3
3
3
3
3
3
3
3
3
3
3
3
3
3
3
3
3
3
3
3
3
3
3
3
3
3
3
3
3
3
3
3
3
3
3
3
3
3
3
3
3
3
3
3
3
3
3
3
3
3
3
3

CELL_DATA 104
SCALARS CellEntityIds int 1
LOOKUP_TABLE default
101
102
103
104
301
302
303
401
402
403
701
801
1
1
1
1
1
1
1
1
1
1
1
1
1
1
1
1
1
1
1
1
1
1
1
1
1
1
1
1
1
1
1
1
2
2
2
2
2
2
2
2
2
2
2
2
2
2
2
2
2
2
2
2
2
2
2
2
2
2
2
2
2
2
2
2
3
3
3
3
3
3
3
3
3
3
3
3
3
3
4
4
4
4
4
4
4
4
4
4
4
4
4
4
